   24
Geometry Step: 1
    N      1.57405541      0.69319005     -0.22540346      5.17876968
    C      1.70040098     -0.73445782     -0.21601321      3.45527086
    N      0.52989687     -1.55685210     -0.34073610      5.12719386
    C      0.33466474      1.35630050      0.02459019      3.51838527
    C     -0.82016504      0.45295560      0.08176449      4.19262536
    C     -0.70307544     -0.93974430     -0.06770326      3.79993068
    N     -2.19381956      0.69355924      0.27875723      4.91635340
    C     -2.82858923     -0.51426702      0.25103543      3.91451804
    N     -1.94795035     -1.51224087      0.04193547      5.36777169
    C      0.65718222     -3.01678197     -0.17187400      4.07012853
    O      2.81575148     -1.25622211     -0.16944275      6.53289252
    O      0.28414532      2.58071061      0.15974985      6.51340851
    C     -2.80383040      1.99471643      0.50070354      4.10040636
    C      2.82006454      1.49390160     -0.19837316      4.06747102
    H     -3.92718315     -0.67651641      0.37641537      0.91663711
    H      1.48298443     -3.40399517     -0.78634787      0.92227264
    H     -0.27142713     -3.51897042     -0.48665551      0.92631604
    H      0.85695688     -3.29832164      0.88064572      0.93714719
    H     -2.41160827      2.74711225     -0.20191097      0.90493541
    H     -2.60378830      2.36218663      1.52331050      0.92037092
    H     -3.89719157      1.93319468      0.36943921      0.93649502
    H      3.59503858      1.03157229     -0.83108990      0.92372651
    H      3.22526460      1.57900771      0.82721747      0.93626308
    H      2.64082236      2.51266225     -0.57871426      0.92071030
